 Gaussian 09, Revision E.01,
 Gaussian 09:  ES64L-G09RevE.01 30-Nov-2015

 ----------------------------------
 #B3LYP/6-31G* IOP(7/33=4) Opt Freq
 ----------------------------------

 --------
 CO2 test
 --------
 Symbolic Z-matrix:
 Charge =  0 Multiplicity = 1

 SCF Done:  E(RB3LYP) =  -188.580590858     A.U. after    9 cycles
 SCF Done:  E(RB3LYP) =  -188.580938050     A.U. after    7 cycles
 SCF Done:  E(RB3LYP) =  -188.580940224     A.U. after    6 cycles
 Optimization completed.
    -- Stationary point found.
 Normal termination of Gaussian 09 at Mon Jun 27 12:09:33 2022.

 ----------------------------------------------------------------------
 #N Geom=AllCheck Guess=TCheck SCRF=Check Test GenChk RB3LYP/6-31G(d) F
 req
 ----------------------------------------------------------------------

 Structure from the checkpoint file:  "CO2.chk"
 --------
 CO2 test
 --------
 Charge =  0 Multiplicity = 1

                         Standard orientation:
 ---------------------------------------------------------------------
 Center     Atomic      Atomic             Coordinates (Angstroms)
 Number     Number       Type             X           Y           Z
 ---------------------------------------------------------------------
      1          6           0        0.000000    0.000000    0.000000
      2          8           0        0.000000    0.000000    1.169167
      3          8           0        0.000000    0.000000   -1.169167
 ---------------------------------------------------------------------

 SCF Done:  E(RB3LYP) =  -188.580940224     A.U. after    1 cycles

 The electronic state is 1-SGG.
 Alpha  occ. eigenvalues --  -19.23659 -19.23659 -10.38530  -1.16098  -1.11963
 Alpha  occ. eigenvalues --   -0.56234  -0.51655  -0.51277  -0.51277  -0.36997
 Alpha  occ. eigenvalues --   -0.36997
 Alpha virt. eigenvalues --    0.02991   0.02991   0.08433   0.36578   0.47260
 Alpha virt. eigenvalues --    0.47260   0.58434   0.73524   0.78154   0.87419
 Alpha virt. eigenvalues --    0.87419   1.03773   1.04165   1.04165   1.37741

 Mulliken charges:
               1
     1  C    0.719493
     2  O   -0.359746
     3  O   -0.359746
 Sum of Mulliken charges =  -0.00000

 Dipole moment (field-independent basis, Debye):
    X=             -0.0000    Y=              0.0000    Z=              0.0000  Tot=              0.0000
 Quadrupole moment (field-independent basis, Debye-Ang):
   XX=            -14.4508   YY=            -14.4508   ZZ=            -18.9144
   XY=              0.0000   XZ=              0.0000   YZ=              0.0000

  Exact polarizability:   7.689   0.000   7.689   0.000   0.000  22.074
 Approx polarizability:   9.915  -0.000   9.915  -0.000  -0.000  46.781

                      1                      2                      3
                     PIU                    PIU                    SGG
 Frequencies --    640.0756               640.0756              1372.0486
 Red. masses --     12.8774                12.8774                15.9949
 Frc consts  --      3.1084                 3.1084                17.7407
 IR Inten    --     30.7177                30.7177                 0.0000

                      4
                     SGU
 Frequencies --   2436.3399
 Red. masses --     12.8774
 Frc consts  --     45.0353
 IR Inten    --    545.7078

 - Thermochemistry -
 -------------------
 Temperature   298.150 Kelvin.  Pressure   1.00000 Atm.
 Atom     1 has atomic number  6 and mass  12.00000

 Molecular mass:    43.98983 amu.
 Principal axes and moments of inertia in atomic units:
                           1         2         3
     Eigenvalues --     0.00000 156.15747 156.15747
           X           -0.00000   0.70711   0.70711
           Y           -0.00000   0.70711  -0.70711
           Z            1.00000   0.00000   0.00000
 This molecule is a prolate symmetric top.
 Rotational symmetry number  2.
 Rotational temperature (Kelvin)      0.55466
 Rotational constant (GHZ):          11.557187
 Zero-point vibrational energy      30436.2 (Joules/Mol)
                                    7.27443 (Kcal/Mol)
 Vibrational temperatures:    920.92   920.92  1974.07  3505.35
          (Kelvin)

 Zero-point correction=                           0.011593 (Hartree/Particle)
 Thermal correction to Energy=                    0.014240
 Thermal correction to Enthalpy=                  0.015184
 Thermal correction to Gibbs Free Energy=        -0.009126
 Sum of electronic and zero-point Energies=           -188.569348
 Sum of electronic and thermal Energies=              -188.566700
 Sum of electronic and thermal Enthalpies=            -188.565756
 Sum of electronic and thermal Free Energies=         -188.590066

                     E (Thermal)             CV                S
                      KCal/Mol        Cal/Mol-Kelvin    Cal/Mol-Kelvin
 Total                    8.936              6.983             51.165
 Electronic               0.000              0.000              0.000
 Translational            0.889              2.981             37.270
 Rotational               0.592              1.987             13.103
 Vibrational              7.454              2.015              0.792

 Optimization completed.
    -- Stationary point found.
 Normal termination of Gaussian 09 at Mon Jun 27 12:09:39 2022.
